ITEM: TIMESTEP
0
ITEM: NUMBER OF ATOMS
240
ITEM: BOX BOUNDS pp pp pp
-2.0000000000000000e+01 2.0000000000000000e+01
-2.0000000000000000e+01 2.0000000000000000e+01
-2.0000000000000000e+01 4.0000000000000000e+01
ITEM: ATOMS id type xs ys zs
34 1 0.47033 0.193418 0.0532255
35 2 0.482213 0.185207 0.0405063
36 2 0.461189 0.214339 0.0484442
37 1 0.538332 0.191296 0.0542757
38 2 0.559036 0.194671 0.0465985
39 2 0.524001 0.208604 0.0487915
201 2 0.593672 0.172899 0.0123546
40 1 0.441361 0.30218 0.0768882
41 2 0.459601 0.296734 0.0672213
196 1 0.429878 0.270503 0.0176968
197 2 0.427075 0.283341 0.00436383
198 2 0.417297 0.282355 0.0287301
83 2 0.622836 0.367087 0.0611282
155 2 0.690355 0.372599 0.0776978
82 1 0.623534 0.376389 0.0464368
84 2 0.642375 0.391139 0.0466424
25 1 0.213656 0.520396 0.0143269
26 2 0.233383 0.509718 0.0198839
27 2 0.211843 0.540512 0.0228826
141 2 0.495913 0.554373 0.0795229
148 1 0.445137 0.595963 0.0526221
149 2 0.434996 0.611096 0.062967
150 2 0.426974 0.588084 0.043662
217 1 0.471222 0.558642 0.0120106
218 2 0.465634 0.581452 0.0150741
219 2 0.495148 0.558243 0.0118985
139 1 0.517025 0.543332 0.0810167
140 2 0.533124 0.561033 0.0807627
214 1 0.513074 0.519576 0.032013
215 2 0.51824 0.542277 0.0357034
216 2 0.510593 0.51962 0.0161456
76 1 0.174971 0.652464 0.0172254
77 2 0.184431 0.644891 0.00346861
78 2 0.192537 0.649719 0.0279038
88 1 0.331456 0.726832 0.00723728
89 2 0.313552 0.714949 0.014258
90 2 0.35033 0.712259 0.0085785
94 1 0.373363 0.650613 0.0499943
202 1 0.301359 0.636925 0.00813715
203 2 0.32038 0.651435 0.00776874
204 2 0.282552 0.651617 0.00696619
95 2 0.386007 0.666724 0.0582455
96 2 0.385492 0.630154 0.0517547
181 1 0.19852 0.774591 0.0704854
182 2 0.209592 0.795092 0.0668481
183 2 0.176649 0.776888 0.0641952
190 1 0.156301 0.836494 0.0791562
191 2 0.134196 0.838683 0.0732221
157 1 0.639373 0.787881 0.0596739
158 2 0.656784 0.786144 0.0705563
159 2 0.644739 0.807619 0.0513945
4 1 0.829382 0.821444 0.0210268
5 2 0.830258 0.835287 0.0080265
6 2 0.851559 0.812716 0.0224683
120 2 0.119813 0.21939 0.0985369
70 1 0.159883 0.12961 0.149753
71 2 0.173155 0.148918 0.152995
72 2 0.146653 0.136024 0.137166
118 1 0.129462 0.2369 0.107305
119 2 0.131634 0.227464 0.121894
124 1 0.178506 0.219008 0.0947813
125 2 0.194833 0.201555 0.0939668
126 2 0.189368 0.236546 0.102866
175 1 0.343168 0.159953 0.117552
176 2 0.324665 0.172115 0.123602
177 2 0.338517 0.137093 0.121108
51 2 0.798681 0.242811 0.14396
184 1 0.197499 0.310116 0.119439
185 2 0.177816 0.316264 0.127534
186 2 0.213646 0.305046 0.130718
58 1 0.281818 0.36516 0.142346
59 2 0.277508 0.352656 0.129051
60 2 0.290697 0.349095 0.152581
42 2 0.446788 0.291528 0.0907079
103 1 0.473483 0.357781 0.0934547
104 2 0.486359 0.337681 0.0923292
105 2 0.471054 0.361391 0.109142
232 1 0.438101 0.351537 0.151996
233 2 0.423345 0.359186 0.163473
234 2 0.436782 0.368375 0.140695
160 1 0.551992 0.268254 0.0924421
161 2 0.566053 0.285766 0.0869345
162 2 0.532522 0.279531 0.0978731
226 1 0.5639 0.274094 0.147503
227 2 0.584446 0.284389 0.143055
228 2 0.546936 0.289414 0.14278
154 1 0.687699 0.351801 0.085388
156 2 0.664374 0.350789 0.088888
49 1 0.786897 0.253418 0.13201
50 2 0.799948 0.272813 0.128602
21 2 0.585216 0.490192 0.136681
46 1 0.557529 0.41774 0.0914559
47 2 0.557509 0.441558 0.0929947
48 2 0.573307 0.410144 0.102328
19 1 0.5707 0.50421 0.128107
20 2 0.579299 0.502904 0.113245
61 1 0.712693 0.529416 0.0995012
62 2 0.707489 0.546309 0.0887472
63 2 0.734061 0.521036 0.0949885
136 1 0.775304 0.607437 0.135517
137 2 0.796189 0.596484 0.138223
138 2 0.773532 0.623655 0.147187
178 1 0.245302 0.669596 0.152587
180 2 0.244779 0.645985 0.150013
208 1 0.436545 0.734848 0.0941813
209 2 0.418702 0.722205 0.0877027
192 2 0.153441 0.83834 0.0949472
130 1 0.371092 0.777922 0.112988
132 2 0.353378 0.793855 0.114477
131 2 0.391099 0.791012 0.11366
174 2 0.48482 0.76123 0.10184
210 2 0.439033 0.75378 0.0845653
151 1 0.529019 0.797391 0.151933
153 2 0.51007 0.783046 0.150072
172 1 0.501118 0.760839 0.113518
173 2 0.521605 0.755172 0.106191
85 1 0.699053 0.849931 0.108159
86 2 0.716762 0.864483 0.112743
87 2 0.679314 0.863374 0.109164
7 1 0.817288 0.780884 0.118113
8 2 0.835983 0.79572 0.116947
9 2 0.798751 0.795157 0.121464
221 2 0.276714 0.176005 0.239568
29 2 0.563211 0.246865 0.214421
43 1 0.561076 0.174792 0.241252
45 2 0.540744 0.184617 0.235973
163 1 0.675683 0.16405 0.206329
164 2 0.689088 0.162859 0.193138
165 2 0.664235 0.18499 0.205156
64 1 0.389247 0.34817 0.217143
65 2 0.397838 0.330822 0.207764
66 2 0.406587 0.364655 0.217452
22 1 0.581377 0.363871 0.23916
28 1 0.546922 0.263142 0.218761
30 2 0.540297 0.256526 0.233442
127 1 0.674502 0.367101 0.171435
128 2 0.678325 0.352528 0.183829
129 2 0.651848 0.362824 0.167157
31 1 0.830856 0.366655 0.207675
114 2 0.793177 0.279116 0.24806
67 1 0.220031 0.462501 0.244446
68 2 0.220835 0.453704 0.229619
69 2 0.242637 0.468695 0.247661
205 1 0.440136 0.450915 0.246822
206 2 0.438783 0.471922 0.239234
23 2 0.568845 0.381275 0.232083
73 1 0.601683 0.456974 0.223585
74 2 0.621796 0.469673 0.225331
75 2 0.584155 0.473239 0.2242
193 1 0.721392 0.409559 0.177529
194 2 0.743363 0.418737 0.175938
195 2 0.708611 0.427124 0.184223
32 2 0.851059 0.379453 0.207125
33 2 0.813541 0.382947 0.209492
16 1 0.354275 0.513255 0.236726
17 2 0.374631 0.525511 0.234833
18 2 0.33735 0.530073 0.237944
121 1 0.830238 0.57244 0.179875
122 2 0.842977 0.585789 0.190033
123 2 0.808087 0.58141 0.180701
10 1 0.21227 0.643149 0.197685
11 2 0.206942 0.639509 0.182323
12 2 0.194041 0.656189 0.203275
179 2 0.243124 0.671846 0.168403
238 1 0.152616 0.659852 0.247976
239 2 0.162304 0.681655 0.249202
240 2 0.140099 0.660547 0.234387
57 2 0.490522 0.657221 0.235854
91 1 0.45853 0.707056 0.240805
92 2 0.481289 0.712518 0.237484
93 2 0.448436 0.727999 0.244584
55 1 0.512528 0.65142 0.230921
56 2 0.521344 0.671721 0.224854
223 1 0.719963 0.655273 0.207416
224 2 0.713551 0.669751 0.219378
225 2 0.701072 0.655194 0.197623
97 1 0.139257 0.792281 0.218942
98 2 0.162843 0.796245 0.218424
99 2 0.130452 0.810853 0.227112
152 2 0.534726 0.795355 0.167367
211 1 0.170146 0.150494 0.283803
212 2 0.191679 0.156483 0.278103
213 2 0.16004 0.171353 0.28777
220 1 0.26959 0.181276 0.254387
222 2 0.259376 0.202831 0.253103
44 2 0.566536 0.187315 0.25435
166 1 0.638902 0.170912 0.324651
167 2 0.640033 0.151417 0.31543
168 2 0.661447 0.174491 0.329438
133 1 0.814605 0.146959 0.250537
134 2 0.80566 0.133084 0.262086
135 2 0.836327 0.15316 0.2558
14 2 0.323858 0.268066 0.331186
15 2 0.287675 0.257016 0.330467
24 2 0.571716 0.361968 0.2537
1 1 0.811399 0.36858 0.323927
100 1 0.785347 0.280546 0.293842
101 2 0.807347 0.285431 0.299208
102 2 0.776504 0.301793 0.289468
112 1 0.798991 0.291364 0.261206
113 2 0.811036 0.310393 0.255812
188 2 0.767895 0.374897 0.293471
171 2 0.112379 0.497654 0.307046
169 1 0.135104 0.495406 0.302278
207 2 0.421068 0.450686 0.25646
189 2 0.74273 0.390807 0.277893
2 2 0.807943 0.391101 0.319051
187 1 0.766218 0.387344 0.279891
170 2 0.134947 0.502576 0.287058
111 2 0.499059 0.587553 0.314982
109 1 0.522799 0.586816 0.313038
110 2 0.527558 0.604813 0.303014
142 1 0.545047 0.605758 0.261578
143 2 0.542321 0.617658 0.2753
144 2 0.565132 0.593099 0.263581
106 1 0.733923 0.602237 0.291982
108 2 0.729966 0.582082 0.300168
107 2 0.753553 0.611592 0.298642
115 1 0.46666 0.655082 0.28226
116 2 0.48698 0.667543 0.283669
117 2 0.449332 0.671279 0.284372
79 1 0.707782 0.670956 0.306093
80 2 0.727003 0.668175 0.315414
81 2 0.702616 0.694276 0.307075
229 1 0.644349 0.685244 0.327696
230 2 0.662859 0.70011 0.329701
231 2 0.625236 0.699602 0.326979
145 1 0.778505 0.727613 0.297515
146 2 0.776958 0.70397 0.295277
147 2 0.756113 0.735556 0.295612
52 1 0.594127 0.784763 0.324772
53 2 0.609482 0.797689 0.316086
235 1 0.687671 0.832892 0.328148
237 2 0.686462 0.809001 0.328568
13 1 0.309424 0.24993 0.335152
3 2 0.804625 0.368619 0.339228
54 2 0.601406 0.787785 0.339835
236 2 0.708539 0.838122 0.335134
199 1 0.600233 0.179159 0.997591
200 2 0.620906 0.167659 0.995185
ITEM: TIMESTEP
100
ITEM: NUMBER OF ATOMS
240
ITEM: BOX BOUNDS pp pp pp
-2.0000000000000000e+01 2.0000000000000000e+01
-2.0000000000000000e+01 2.0000000000000000e+01
-2.0000000000000000e+01 4.0000000000000000e+01
ITEM: ATOMS id type xs ys zs
34 1 0.451587 0.18435 0.0487346
35 2 0.434423 0.196434 0.0563949
36 2 0.469341 0.182529 0.0593616
37 1 0.548855 0.201504 0.0556051
38 2 0.555616 0.223616 0.0597149
39 2 0.568503 0.188173 0.0575917
201 2 0.617524 0.189171 0.990368
40 1 0.432182 0.290829 0.0664516
41 2 0.455251 0.296685 0.068101
196 1 0.440268 0.276999 0.0240346
197 2 0.439919 0.278444 0.0399571
198 2 0.445381 0.254069 0.0210015
83 2 0.598776 0.389471 0.0280167
155 2 0.692344 0.340819 0.0748039
82 1 0.613031 0.385452 0.040547
84 2 0.604765 0.365133 0.0469229
25 1 0.219877 0.509222 0.0186963
26 2 0.217092 0.501419 0.00372992
27 2 0.243581 0.510603 0.0206793
141 2 0.514559 0.527854 0.086508
148 1 0.44405 0.584707 0.0457702
149 2 0.448473 0.606963 0.0508362
150 2 0.434272 0.573749 0.0583655
217 1 0.461768 0.5623 0.00281412
218 2 0.449594 0.571036 0.0152525
219 2 0.45103 0.541498 0.999506
139 1 0.514773 0.548433 0.0946484
140 2 0.526267 0.543226 0.108204
214 1 0.531618 0.502696 0.0422796
215 2 0.552853 0.510481 0.0474909
216 2 0.515857 0.511433 0.0527763
76 1 0.16141 0.65374 0.0244608
77 2 0.1802 0.666449 0.0193812
78 2 0.157697 0.637585 0.0129545
88 1 0.332288 0.716376 0.998136
89 2 0.31759 0.714795 0.0106806
90 2 0.31906 0.726632 0.986735
94 1 0.362058 0.65094 0.0521965
202 1 0.299476 0.627744 0.0127675
203 2 0.293286 0.607417 0.00542926
204 2 0.313832 0.638872 0.00238134
95 2 0.354579 0.66118 0.0386671
96 2 0.385934 0.65205 0.0514209
181 1 0.191446 0.783519 0.0662613
182 2 0.214537 0.781467 0.0702183
183 2 0.181444 0.763187 0.0713909
190 1 0.149571 0.8341 0.0872022
191 2 0.15778 0.822808 0.100159
157 1 0.626442 0.776774 0.0578617
158 2 0.648289 0.775672 0.0513937
159 2 0.630176 0.784549 0.0727428
4 1 0.837269 0.816702 0.0155265
5 2 0.844764 0.822366 0.030199
6 2 0.814658 0.824492 0.014974
120 2 0.0623138 0.246281 0.113159
70 1 0.16614 0.139779 0.141492
71 2 0.171488 0.143458 0.126137
72 2 0.164598 0.115989 0.142876
118 1 0.0777262 0.261457 0.119983
119 2 0.0926999 0.2676 0.108232
124 1 0.233074 0.20684 0.0769973
125 2 0.237907 0.220988 0.064541
126 2 0.223448 0.187189 0.07054
175 1 0.340944 0.169469 0.113851
176 2 0.346977 0.153769 0.102503
177 2 0.317057 0.168391 0.114492
51 2 0.779675 0.236773 0.143156
184 1 0.207171 0.317779 0.12947
185 2 0.214547 0.31348 0.114567
186 2 0.183286 0.317206 0.128571
58 1 0.277485 0.369574 0.142413
59 2 0.264197 0.349683 0.141964
60 2 0.293143 0.366937 0.130477
42 2 0.422484 0.295485 0.0807019
103 1 0.474131 0.359689 0.0994853
104 2 0.479692 0.38296 0.0992237
105 2 0.459256 0.357388 0.111888
232 1 0.433409 0.350877 0.147091
233 2 0.441908 0.372945 0.14953
234 2 0.442975 0.337771 0.158817
160 1 0.543508 0.261675 0.0983602
161 2 0.520528 0.258297 0.102201
162 2 0.549825 0.281463 0.106281
226 1 0.554633 0.286142 0.141669
227 2 0.558833 0.303601 0.152214
228 2 0.566159 0.267129 0.147568
154 1 0.681121 0.344119 0.0887211
156 2 0.693282 0.330597 0.0990897
49 1 0.80022 0.247735 0.139481
50 2 0.808081 0.236297 0.126485
21 2 0.57654 0.498862 0.132612
46 1 0.558744 0.415024 0.094797
47 2 0.570246 0.394331 0.092474
48 2 0.57082 0.4309 0.0859841
19 1 0.565378 0.501835 0.11864
20 2 0.576101 0.486349 0.108801
61 1 0.725486 0.534449 0.0987428
62 2 0.727699 0.547071 0.0852698
63 2 0.723575 0.550965 0.110217
136 1 0.771352 0.603652 0.130859
137 2 0.788774 0.600583 0.141603
138 2 0.77382 0.626319 0.126019
178 1 0.254264 0.679644 0.158921
180 2 0.274553 0.675412 0.166895
208 1 0.429944 0.743183 0.101687
209 2 0.420366 0.725731 0.110539
192 2 0.166103 0.82993 0.0760075
130 1 0.369591 0.771249 0.110411
132 2 0.355665 0.756599 0.101871
131 2 0.356645 0.791227 0.112034
174 2 0.489062 0.755331 0.113299
210 2 0.413909 0.760921 0.10231
151 1 0.542379 0.800735 0.147069
153 2 0.552616 0.820752 0.141605
172 1 0.510821 0.763456 0.10946
173 2 0.510421 0.76529 0.0935557
85 1 0.691151 0.862122 0.104611
86 2 0.709231 0.84661 0.10612
87 2 0.697029 0.880327 0.114194
7 1 0.813996 0.778031 0.122405
8 2 0.8305 0.771484 0.133102
9 2 0.793084 0.773504 0.129549
221 2 0.266625 0.163005 0.254379
29 2 0.567762 0.270711 0.236706
43 1 0.552458 0.184611 0.235911
45 2 0.575521 0.184877 0.23166
163 1 0.679719 0.154361 0.213497
164 2 0.691879 0.173852 0.209031
165 2 0.678109 0.141162 0.200234
64 1 0.390089 0.359024 0.207594
65 2 0.376288 0.344818 0.216547
66 2 0.386817 0.351166 0.192684
22 1 0.582759 0.3488 0.229494
28 1 0.548775 0.271681 0.227018
30 2 0.535314 0.25298 0.231324
127 1 0.660495 0.357703 0.166434
128 2 0.642559 0.368946 0.158995
129 2 0.67044 0.374516 0.175649
31 1 0.839101 0.381689 0.201035
114 2 0.824662 0.298455 0.222684
67 1 0.226164 0.473202 0.241597
68 2 0.23527 0.45446 0.233752
69 2 0.238216 0.473742 0.255375
205 1 0.434778 0.460916 0.242531
206 2 0.418633 0.446479 0.249315
23 2 0.56715 0.365909 0.225478
73 1 0.614766 0.446549 0.222958
74 2 0.591573 0.445818 0.226854
75 2 0.625782 0.434762 0.23474
193 1 0.756183 0.427918 0.182204
194 2 0.770205 0.419475 0.193841
195 2 0.758279 0.411902 0.170433
32 2 0.835348 0.384619 0.216669
33 2 0.835424 0.358349 0.198506
16 1 0.354311 0.514647 0.241671
17 2 0.341187 0.503741 0.230487
18 2 0.33872 0.519798 0.253276
121 1 0.838368 0.574361 0.175918
122 2 0.831506 0.556838 0.166063
123 2 0.860344 0.568016 0.180606
10 1 0.220361 0.643795 0.191961
11 2 0.230175 0.661364 0.200593
12 2 0.197429 0.6502 0.190361
179 2 0.244283 0.658064 0.157115
238 1 0.159326 0.652702 0.25224
239 2 0.160605 0.657805 0.267803
240 2 0.177097 0.637113 0.249763
57 2 0.503756 0.665132 0.221208
91 1 0.457837 0.706226 0.245299
92 2 0.465012 0.721788 0.256434
93 2 0.43823 0.716178 0.239002
55 1 0.497971 0.642331 0.224136
56 2 0.494452 0.632757 0.209705
223 1 0.713661 0.65948 0.203779
224 2 0.716911 0.648529 0.217798
225 2 0.729793 0.649442 0.19408
97 1 0.141146 0.795381 0.212816
98 2 0.138785 0.777192 0.223063
99 2 0.151102 0.812895 0.221426
152 2 0.539985 0.786864 0.134167
211 1 0.155838 0.151372 0.292608
212 2 0.166422 0.142466 0.279589
213 2 0.172393 0.149502 0.304059
220 1 0.266456 0.179515 0.242831
222 2 0.287556 0.176904 0.235509
44 2 0.552827 0.18147 0.251724
166 1 0.651579 0.163907 0.323056
167 2 0.672499 0.173283 0.318482
168 2 0.644048 0.151483 0.310379
133 1 0.80459 0.157739 0.246614
134 2 0.794761 0.143362 0.235673
135 2 0.792653 0.152873 0.260055
14 2 0.300877 0.244695 0.3384
15 2 0.336914 0.256118 0.33961
24 2 0.570071 0.328529 0.228918
1 1 0.796212 0.375934 0.33054
100 1 0.762777 0.246328 0.349906
101 2 0.768429 0.247836 0.365375
102 2 0.739175 0.242382 0.349785
112 1 0.824836 0.306678 0.207702
113 2 0.819028 0.287705 0.198785
188 2 0.785893 0.394278 0.28147
171 2 0.117653 0.475211 0.299598
169 1 0.13057 0.490643 0.308229
207 2 0.421729 0.477117 0.234645
189 2 0.759492 0.371966 0.291746
2 2 0.788065 0.356669 0.322789
187 1 0.781538 0.371556 0.285548
170 2 0.149565 0.477999 0.313036
111 2 0.543142 0.591383 0.319937
109 1 0.522837 0.597922 0.312708
110 2 0.530004 0.609841 0.299726
142 1 0.546605 0.618979 0.263561
143 2 0.564078 0.610295 0.254325
144 2 0.530966 0.628564 0.253315
106 1 0.730071 0.609422 0.28069
108 2 0.749762 0.59623 0.282886
107 2 0.727705 0.621848 0.294233
115 1 0.477293 0.655888 0.286536
116 2 0.471746 0.646217 0.300652
117 2 0.474121 0.6794 0.28862
79 1 0.710974 0.680164 0.313297
80 2 0.703706 0.693606 0.30102
81 2 0.698058 0.660095 0.312127
229 1 0.629026 0.701055 0.334601
230 2 0.614184 0.716765 0.327752
231 2 0.617669 0.694215 0.347882
145 1 0.781364 0.71165 0.304853
146 2 0.776253 0.702158 0.319096
147 2 0.776409 0.734934 0.30648
52 1 0.58832 0.771945 0.321946
53 2 0.585216 0.78982 0.332349
235 1 0.682616 0.822976 0.335104
237 2 0.697909 0.840768 0.331961
13 1 0.315703 0.26184 0.333285
3 2 0.810779 0.386675 0.320103
54 2 0.594079 0.782825 0.308266
236 2 0.661703 0.833924 0.337724
199 1 0.617436 0.190016 0.00631155
200 2 0.594759 0.195057 0.0101398
ITEM: TIMESTEP
200
ITEM: NUMBER OF ATOMS
240
ITEM: BOX BOUNDS pp pp pp
-2.0000000000000000e+01 2.0000000000000000e+01
-2.0000000000000000e+01 2.0000000000000000e+01
-2.0000000000000000e+01 4.0000000000000000e+01
ITEM: ATOMS id type xs ys zs
34 1 0.440388 0.181238 0.0462866
35 2 0.434171 0.161585 0.0543898
36 2 0.457842 0.191103 0.0549965
37 1 0.557398 0.212989 0.0579326
38 2 0.554928 0.200376 0.0713898
39 2 0.563544 0.234919 0.0628276
201 2 0.613215 0.209256 0.0260436
40 1 0.429886 0.289989 0.0777197
41 2 0.436727 0.310665 0.0843316
196 1 0.450633 0.274147 0.0159605
197 2 0.467418 0.257589 0.018685
198 2 0.432927 0.262205 0.0087638
83 2 0.607165 0.410825 0.0322485
155 2 0.678991 0.350076 0.0795739
82 1 0.598543 0.389691 0.03704
84 2 0.605917 0.374212 0.0259111
25 1 0.227065 0.501245 0.0197322
26 2 0.208639 0.494486 0.010605
27 2 0.228327 0.484506 0.0311015
141 2 0.507632 0.568546 0.11804
148 1 0.446889 0.578758 0.0419743
149 2 0.453378 0.579947 0.0573094
150 2 0.423043 0.58072 0.0422303
217 1 0.44897 0.56052 0.994507
218 2 0.452285 0.541553 0.00397968
219 2 0.442578 0.578128 0.00443429
139 1 0.514228 0.547841 0.111359
140 2 0.507795 0.549966 0.0960588
214 1 0.547107 0.491644 0.0500292
215 2 0.566161 0.479436 0.0552158
216 2 0.533669 0.475304 0.042573
76 1 0.153268 0.655348 0.0286407
77 2 0.15183 0.647978 0.0437883
78 2 0.130732 0.660699 0.024634
88 1 0.327937 0.70298 0.994114
89 2 0.314374 0.684743 0.98912
90 2 0.350321 0.696381 0.990582
94 1 0.353562 0.652924 0.0509314
202 1 0.303002 0.626397 0.0122842
203 2 0.280393 0.621584 0.00815735
204 2 0.305293 0.617203 0.0269334
95 2 0.360425 0.660909 0.0366053
96 2 0.34923 0.672759 0.0593766
181 1 0.184756 0.784911 0.0656605
182 2 0.207291 0.79167 0.0685783
183 2 0.184794 0.778468 0.0502962
190 1 0.149859 0.832802 0.0928891
191 2 0.155508 0.809727 0.0909709
157 1 0.617827 0.768983 0.0575601
158 2 0.60768 0.787907 0.0505185
159 2 0.616768 0.773888 0.0731587
4 1 0.841534 0.815202 0.0136075
5 2 0.829022 0.80516 0.00177045
6 2 0.838959 0.800142 0.0258861
120 2 0.0309687 0.296371 0.11661
70 1 0.170659 0.146196 0.133821
71 2 0.171129 0.128321 0.12322
72 2 0.186057 0.139475 0.145181
118 1 0.0375258 0.28244 0.128823
119 2 0.0360359 0.260151 0.123103
124 1 0.277124 0.193623 0.0610225
125 2 0.255205 0.197055 0.0670007
126 2 0.277023 0.205471 0.0471618
175 1 0.338429 0.175916 0.110356
176 2 0.314518 0.176638 0.110771
177 2 0.344771 0.196333 0.10319
51 2 0.825151 0.231295 0.137339
184 1 0.220284 0.327419 0.135169
185 2 0.233441 0.307806 0.13774
186 2 0.198078 0.321076 0.139348
58 1 0.269847 0.366971 0.142267
59 2 0.26957 0.386584 0.133129
60 2 0.249162 0.355962 0.139027
42 2 0.430756 0.294061 0.0620098
103 1 0.469717 0.356828 0.103233
104 2 0.484285 0.372629 0.0962168
105 2 0.461037 0.368429 0.115929
232 1 0.433064 0.354108 0.143029
233 2 0.425632 0.334959 0.134845
234 2 0.455842 0.349246 0.146689
160 1 0.532618 0.25153 0.0984765
161 2 0.529426 0.275233 0.0990053
162 2 0.537341 0.245351 0.113564
226 1 0.552693 0.295809 0.140131
227 2 0.537628 0.296074 0.152525
228 2 0.562816 0.317492 0.140245
154 1 0.674612 0.336134 0.0922071
156 2 0.692002 0.341496 0.102567
49 1 0.80667 0.241739 0.144703
50 2 0.816453 0.253009 0.157174
21 2 0.557902 0.515927 0.110286
46 1 0.561641 0.414549 0.0974482
47 2 0.579549 0.425572 0.105062
48 2 0.564358 0.42086 0.0821666
19 1 0.56281 0.492969 0.107193
20 2 0.541592 0.483246 0.103674
61 1 0.738153 0.54702 0.101999
62 2 0.759086 0.541149 0.0953338
63 2 0.743081 0.566222 0.110935
136 1 0.768133 0.594631 0.125932
137 2 0.763662 0.585335 0.140327
138 2 0.787703 0.608033 0.128047
178 1 0.26921 0.689931 0.159605
180 2 0.277081 0.667413 0.15834
208 1 0.444782 0.747702 0.109813
209 2 0.429049 0.765045 0.113101
192 2 0.12731 0.83448 0.0876658
130 1 0.356911 0.767623 0.108881
132 2 0.33448 0.759425 0.109894
131 2 0.354803 0.78892 0.101744
174 2 0.486495 0.75995 0.101631
210 2 0.432209 0.727442 0.11116
151 1 0.552345 0.802813 0.143467
153 2 0.536805 0.807788 0.131797
172 1 0.509684 0.765772 0.1023
173 2 0.520587 0.749338 0.0932648
85 1 0.686499 0.867772 0.10112
86 2 0.706016 0.856932 0.106863
87 2 0.686443 0.88927 0.108127
7 1 0.810317 0.772742 0.126422
8 2 0.804048 0.79532 0.129659
9 2 0.818421 0.764157 0.140299
221 2 0.273479 0.191106 0.244979
29 2 0.556429 0.248984 0.238374
43 1 0.550484 0.203109 0.232202
45 2 0.563179 0.187648 0.240957
163 1 0.682044 0.146713 0.218086
164 2 0.679996 0.170147 0.215158
165 2 0.698932 0.145227 0.229345
64 1 0.385607 0.366365 0.199709
65 2 0.405697 0.371284 0.191686
66 2 0.387536 0.343199 0.203496
22 1 0.576639 0.333303 0.219001
28 1 0.55518 0.272572 0.235816
30 2 0.55459 0.274753 0.219934
127 1 0.647312 0.350916 0.164436
128 2 0.669542 0.348481 0.15876
129 2 0.636623 0.365872 0.154223
31 1 0.850271 0.423821 0.188608
114 2 0.818455 0.284743 0.184045
67 1 0.234304 0.479226 0.241534
68 2 0.223486 0.486286 0.228105
69 2 0.224017 0.458283 0.245075
205 1 0.426545 0.469469 0.239381
206 2 0.408564 0.46178 0.230186
23 2 0.566745 0.352813 0.225468
73 1 0.623792 0.431885 0.22373
74 2 0.628426 0.453105 0.230427
75 2 0.609149 0.436949 0.211573
193 1 0.786338 0.437577 0.185303
194 2 0.799929 0.426682 0.196242
195 2 0.798908 0.456939 0.1811
32 2 0.862497 0.412399 0.200013
33 2 0.852159 0.409658 0.17581
16 1 0.355568 0.510554 0.243237
17 2 0.332491 0.506007 0.246177
18 2 0.363334 0.521778 0.256341
121 1 0.840657 0.575239 0.168339
122 2 0.853457 0.568473 0.181041
123 2 0.837942 0.555216 0.159792
10 1 0.218935 0.645805 0.192194
11 2 0.201777 0.635307 0.200835
12 2 0.23657 0.629649 0.191649
179 2 0.252653 0.689067 0.171109
238 1 0.168977 0.645189 0.255549
239 2 0.15374 0.629043 0.261505
240 2 0.172804 0.660447 0.267572
57 2 0.473954 0.65076 0.225189
91 1 0.456167 0.702518 0.246097
92 2 0.479734 0.706643 0.245789
93 2 0.446324 0.723152 0.241382
55 1 0.493099 0.636406 0.224976
56 2 0.499804 0.635858 0.209667
223 1 0.7133 0.659813 0.202606
224 2 0.692086 0.658724 0.195259
225 2 0.722229 0.637699 0.201288
97 1 0.143823 0.795434 0.209194
98 2 0.120719 0.800557 0.206826
99 2 0.148379 0.803301 0.223951
152 2 0.541706 0.810764 0.156737
211 1 0.146483 0.149726 0.299824
212 2 0.134691 0.169336 0.295156
213 2 0.163526 0.146749 0.288803
220 1 0.265662 0.173268 0.235709
222 2 0.268544 0.181367 0.22082
44 2 0.535178 0.189405 0.224021
166 1 0.660914 0.158054 0.318991
167 2 0.66916 0.147215 0.332108
168 2 0.669873 0.180214 0.319761
133 1 0.793137 0.163788 0.241934
134 2 0.796566 0.187174 0.244427
135 2 0.792982 0.154169 0.256542
14 2 0.343416 0.268282 0.338772
15 2 0.315214 0.288983 0.329144
24 2 0.571505 0.315696 0.229249
1 1 0.789919 0.377894 0.338108
100 1 0.741193 0.217685 0.394664
101 2 0.749521 0.208901 0.408426
102 2 0.750363 0.239752 0.393821
112 1 0.838081 0.283181 0.174977
113 2 0.834463 0.298998 0.16325
188 2 0.769825 0.350971 0.280729
171 2 0.143862 0.487064 0.301353
169 1 0.127259 0.485141 0.312771
207 2 0.416022 0.483411 0.250285
189 2 0.795888 0.359407 0.298139
2 2 0.772542 0.37626 0.349022
187 1 0.790388 0.362818 0.28278
170 2 0.13836 0.473725 0.324679
111 2 0.54788 0.610547 0.31992
109 1 0.528959 0.606616 0.310512
110 2 0.536916 0.591303 0.29946
142 1 0.536838 0.632019 0.262117
143 2 0.523024 0.620731 0.251483
144 2 0.522649 0.635265 0.274779
106 1 0.730508 0.618607 0.273212
108 2 0.712851 0.621347 0.283824
107 2 0.725775 0.634723 0.261849
115 1 0.48785 0.657947 0.289655
116 2 0.464503 0.653621 0.287672
117 2 0.495029 0.641502 0.30021
79 1 0.706747 0.68925 0.318141
80 2 0.691478 0.681807 0.329379
81 2 0.728108 0.689146 0.325332
229 1 0.620398 0.707869 0.339302
230 2 0.609943 0.715643 0.32592
231 2 0.625627 0.72781 0.347403
145 1 0.781487 0.698066 0.312626
146 2 0.80117 0.698756 0.303564
147 2 0.768033 0.680869 0.306097
52 1 0.583804 0.761679 0.317487
53 2 0.598248 0.778898 0.312008
235 1 0.675113 0.82226 0.339834
237 2 0.687942 0.80804 0.33027
13 1 0.320951 0.266639 0.333387
3 2 0.794305 0.401352 0.336926
54 2 0.572512 0.77168 0.329871
236 2 0.672214 0.809516 0.353198
199 1 0.623907 0.20111 0.0128448
200 2 0.628621 0.178134 0.0160091
ITEM: TIMESTEP
300
ITEM: NUMBER OF ATOMS
240
ITEM: BOX BOUNDS pp pp pp
-2.0000000000000000e+01 2.0000000000000000e+01
-2.0000000000000000e+01 2.0000000000000000e+01
-2.0000000000000000e+01 4.0000000000000000e+01
ITEM: ATOMS id type xs ys zs
34 1 0.433509 0.1817 0.0432019
35 2 0.433946 0.157978 0.0452811
36 2 0.43451 0.190684 0.0579732
37 1 0.568035 0.225159 0.0635559
38 2 0.568472 0.204431 0.0715227
39 2 0.551323 0.238161 0.0709889
201 2 0.617082 0.233111 0.0268576
40 1 0.43689 0.296436 0.0864062
41 2 0.443424 0.316001 0.078318
196 1 0.457227 0.269828 0.0116818
197 2 0.439186 0.254191 0.0105925
198 2 0.463994 0.268805 0.0269687
83 2 0.590993 0.385718 0.0228152
155 2 0.657527 0.335348 0.0840787
82 1 0.588712 0.398042 0.0364052
84 2 0.569749 0.41218 0.0339873
25 1 0.231704 0.495859 0.0214693
26 2 0.2184 0.490617 0.00867734
27 2 0.227173 0.478162 0.0317748
141 2 0.509615 0.537726 0.105745
148 1 0.441915 0.575395 0.0363167
149 2 0.448814 0.555486 0.0438795
150 2 0.434736 0.590078 0.0479692
217 1 0.439459 0.559562 0.989769
218 2 0.460645 0.57067 0.989344
219 2 0.431975 0.562207 0.00481923
139 1 0.516449 0.546942 0.119745
140 2 0.499634 0.563158 0.123207
214 1 0.555357 0.481048 0.0556168
215 2 0.54534 0.489871 0.0688573
216 2 0.578763 0.480276 0.0588963
76 1 0.143157 0.657643 0.033386
77 2 0.145228 0.661715 0.049046
78 2 0.157882 0.63926 0.0305701
88 1 0.326019 0.68537 0.99354
89 2 0.3298 0.66639 0.00292283
90 2 0.321964 0.676059 0.979095
94 1 0.346263 0.655906 0.0480611
202 1 0.306381 0.62888 0.0137019
203 2 0.297575 0.618324 0.000643284
204 2 0.320116 0.612134 0.0204874
95 2 0.36004 0.673025 0.0417444
96 2 0.329204 0.65219 0.0371508
181 1 0.178385 0.787967 0.0630889
182 2 0.195072 0.79364 0.0738799
183 2 0.188522 0.770872 0.0542031
190 1 0.149092 0.830491 0.0966905
191 2 0.152935 0.821127 0.0822345
157 1 0.606721 0.76465 0.0588907
158 2 0.599086 0.787029 0.05644
159 2 0.628346 0.767241 0.0654995
4 1 0.845094 0.811528 0.0114988
5 2 0.83831 0.813858 0.0267184
6 2 0.829079 0.796507 0.00515534
120 2 0.989798 0.288364 0.125674
70 1 0.176952 0.150005 0.12725
71 2 0.160998 0.133438 0.131655
72 2 0.179792 0.163684 0.140202
118 1 0.00589218 0.298468 0.13537
119 2 -0.000624635 0.321467 0.136106
124 1 0.312996 0.183414 0.0537047
125 2 0.308177 0.170088 0.0408493
126 2 0.3217 0.203866 0.0477953
175 1 0.334251 0.185293 0.104116
176 2 0.326786 0.195582 0.0906004
177 2 0.316356 0.170692 0.10829
51 2 0.822274 0.205065 0.139502
184 1 0.217398 0.319753 0.139031
185 2 0.207979 0.299239 0.144326
186 2 0.198473 0.333641 0.135932
58 1 0.275219 0.380622 0.143488
59 2 0.291094 0.362741 0.142865
60 2 0.254198 0.370238 0.140295
42 2 0.447178 0.298968 0.100711
103 1 0.471505 0.351726 0.0925475
104 2 0.489883 0.347294 0.102328
105 2 0.468071 0.375351 0.0936492
232 1 0.427072 0.350431 0.148859
233 2 0.411952 0.340717 0.138325
234 2 0.441126 0.332291 0.153385
160 1 0.528583 0.247414 0.0995207
161 2 0.510246 0.261926 0.0961338
162 2 0.534567 0.252958 0.114518
226 1 0.548884 0.297708 0.13484
227 2 0.55128 0.311597 0.147732
228 2 0.563434 0.307516 0.123992
154 1 0.668739 0.334292 0.0981549
156 2 0.689112 0.322613 0.0950865
49 1 0.802114 0.217771 0.138041
50 2 0.809512 0.240415 0.136523
21 2 0.560237 0.467383 0.110874
46 1 0.562813 0.412673 0.0983375
47 2 0.555636 0.424651 0.0853819
48 2 0.585001 0.405426 0.0948217
19 1 0.558351 0.485132 0.100248
20 2 0.568317 0.504003 0.107467
61 1 0.741282 0.543525 0.0968101
62 2 0.75775 0.551782 0.0866283
63 2 0.743792 0.55718 0.109804
136 1 0.780178 0.596732 0.133373
137 2 0.797201 0.587111 0.14257
138 2 0.791863 0.612185 0.124008
178 1 0.273077 0.69208 0.164516
180 2 0.260449 0.672079 0.166933
208 1 0.441375 0.752738 0.11162
209 2 0.428939 0.768977 0.1199
192 2 0.126838 0.823711 0.100427
130 1 0.361177 0.761459 0.109538
132 2 0.356033 0.759102 0.125039
131 2 0.340372 0.757585 0.102091
174 2 0.492791 0.769636 0.112311
210 2 0.424751 0.738128 0.105552
151 1 0.555081 0.801443 0.134554
153 2 0.556865 0.785797 0.146566
172 1 0.514268 0.773731 0.105828
173 2 0.513797 0.76189 0.0919678
85 1 0.683515 0.872929 0.0973542
86 2 0.688807 0.858246 0.109447
87 2 0.660659 0.878996 0.0997965
7 1 0.808116 0.768723 0.130035
8 2 0.790872 0.778269 0.139083
9 2 0.827365 0.782255 0.132942
221 2 0.285013 0.177074 0.236013
29 2 0.551893 0.263622 0.231838
43 1 0.546437 0.201367 0.227108
45 2 0.537276 0.19348 0.240876
163 1 0.684779 0.143356 0.22339
164 2 0.672386 0.142455 0.209756
165 2 0.704629 0.130755 0.220421
64 1 0.383582 0.37297 0.192601
65 2 0.397819 0.387768 0.200792
66 2 0.375109 0.386328 0.180631
22 1 0.570493 0.328689 0.21081
28 1 0.560397 0.276463 0.244048
30 2 0.571089 0.295237 0.237189
127 1 0.636452 0.344658 0.15938
128 2 0.653413 0.333153 0.151145
129 2 0.647935 0.362891 0.166319
31 1 0.880278 0.448343 0.180372
114 2 0.841805 0.303526 0.166641
67 1 0.239432 0.482949 0.241172
68 2 0.234338 0.504871 0.23575
69 2 0.250823 0.47231 0.229067
205 1 0.417352 0.475847 0.237151
206 2 0.41241 0.490616 0.225039
23 2 0.582841 0.324513 0.197431
73 1 0.630642 0.421672 0.222107
74 2 0.621332 0.434646 0.233988
75 2 0.640613 0.402829 0.229353
193 1 0.791668 0.454736 0.186131
194 2 0.810736 0.448249 0.177517
195 2 0.781919 0.434068 0.190865
32 2 0.894764 0.462829 0.188617
33 2 0.894036 0.42965 0.176487
16 1 0.35782 0.505744 0.245026
17 2 0.34463 0.48689 0.249408
18 2 0.353445 0.52226 0.256196
121 1 0.834003 0.576973 0.159959
122 2 0.854001 0.583511 0.152359
123 2 0.841697 0.566627 0.173398
10 1 0.22722 0.651499 0.190076
11 2 0.237472 0.656193 0.204147
12 2 0.205246 0.643838 0.193793
179 2 0.260328 0.704393 0.153798
238 1 0.177537 0.6383 0.257027
239 2 0.163725 0.618804 0.256134
240 2 0.162376 0.65604 0.260561
57 2 0.480554 0.660524 0.225768
91 1 0.459991 0.69017 0.246204
92 2 0.438467 0.696409 0.2518
93 2 0.469382 0.676426 0.257665
55 1 0.48539 0.637222 0.224098