LAMMPS data file via write_data, version 7 Feb 2024, timestep = 20000, units = real

240 atoms
2 atom types
160 bonds
1 bond types
80 angles
1 angle types

-20 20 xlo xhi
-20 20 ylo yhi
-20 40 zlo zhi

Masses

1 15.9994
2 1.008

Atoms # full

146 49 2 0.417 -15.113709239266214 -12.047056186207142 31.316832596614443 1 1 -1
120 40 2 0.417 3.830590370067361 -5.105567866408555 36.87724303674392 -1 1 -1
118 40 1 -0.834 4.627230914250787 -4.706285231508905 37.22677127946439 -1 1 -1
119 40 2 0.417 5.027049618646804 -5.394334477941884 37.75871612144222 -1 1 -1
11 4 2 0.417 2.072242508469089 -5.4173271913145555 37.98722640090392 -1 0 -1
10 4 1 -0.834 2.0503944903402282 -5.461448176540685 37.031292650159976 -1 0 -1
12 4 2 0.417 1.2243866097995135 -5.901326531352169 36.83016782556556 -1 0 -1
78 26 2 0.417 -15.106301197930568 -3.7178060411623273 38.763981599966044 0 0 -1
77 26 2 0.417 -14.546533508415267 -2.3232403939963735 38.58028592201271 0 0 -1
76 26 1 -0.834 -14.282324612238137 -3.23759948074577 38.682147039469434 0 0 -1
33 11 2 0.417 4.986554037472869 -2.241217671890074 38.828912562565044 0 1 -1
32 11 2 0.417 5.041664774907479 -3.7222098720601275 38.51984522430824 0 1 -1
31 11 1 -0.834 5.119411748690739 -3.095695297033461 39.23933822034098 0 1 -1
5 2 2 0.417 -12.385738471372514 2.560429995184403 -17.399825629233167 1 0 0
4 2 1 -0.834 -11.854310027944388 2.334847179035643 -18.16332290168937 1 0 0
6 2 2 0.417 -11.938953176170472 1.3846781067412472 -18.242374975370343 1 0 0
233 78 2 0.417 -8.18107676513773 7.791320620168316 -18.274941568866897 0 0 0
185 62 2 0.417 18.417223199772923 12.147619472053648 -18.50016140734796 -1 0 0
232 78 1 -0.834 -9.116924829047946 7.987185061257419 -18.229582619679014 0 0 0
173 58 2 0.417 -7.688838459676725 10.395167707444317 -15.099068204786132 0 0 0
172 58 1 -0.834 -6.845177144809306 10.836590593582725 -15.00101782582089 0 0 0
28 10 1 -0.834 14.440960533649303 15.769900410239504 -9.520460961496232 -1 0 0
30 10 2 0.417 15.286427550030131 16.21641242724405 -9.475236386355004 -1 0 0
29 10 2 0.417 13.80056332691948 16.445409541199638 -9.297261711017928 -1 0 0
184 62 1 -0.834 17.671839183100804 11.919728551312293 -19.055771384173507 -1 0 0
27 9 2 0.417 17.66807110822365 15.070960676563496 -10.179787227070758 -1 0 0
220 74 1 -0.834 -11.630320627941385 9.205850263510778 39.12913044498264 0 0 -1
222 74 2 0.417 -12.375324774013782 9.645193089243488 39.53922752543893 0 0 -1
234 78 2 0.417 -9.428891685250871 7.877446857520026 -19.12783988103748 0 0 0
221 74 2 0.417 -10.861918934458325 9.606651510242099 39.535516273859805 0 0 -1
133 45 1 -0.834 -8.137314016712898 10.702459551287031 -19.68359791531432 0 0 0
26 9 2 0.417 16.319182662521058 14.466083856802639 -10.50616191728906 -1 0 0
25 9 1 -0.834 17.203470806165686 14.577051884357294 -10.85538671142081 -1 0 0
219 73 2 0.417 -3.5327219119958473 17.131320768954897 -18.117637690321192 0 0 0
217 73 1 -0.834 -4.236797072357962 17.77898848939814 -18.149854095705084 0 0 0
218 73 2 0.417 -4.214818508610664 18.20030214227748 -17.2906426017434 0 0 0
160 54 1 -0.834 -6.382126351217238 18.18387963215828 39.665602579485515 0 0 -1
162 54 2 0.417 -5.5628126013594095 18.059095720646177 -19.855454543271712 0 0 0
161 54 2 0.417 -6.220915106831523 18.945461929069797 39.10861491133893 0 0 -1
208 70 1 -0.834 -4.636672087650407 17.908829098897588 -15.367424402725964 0 0 0
210 70 2 0.417 -4.358523650960134 17.033940373525475 -15.096433697307946 0 0 0
209 70 2 0.417 -5.588686740669741 17.899409453357503 -15.268367260650463 0 0 0
135 45 2 0.417 -8.875837866557475 10.157739121723539 -19.41139471935499 0 0 0
134 45 2 0.417 -8.311081342276628 11.557003665777419 -19.2888893458946 0 0 0
174 58 2 0.417 -6.440799263617118 10.776376964315704 -15.866515358356873 0 0 0
165 55 2 0.417 -5.020406892408779 11.99303270880165 -12.7788259858722 0 0 0
204 68 2 0.417 -5.136414514799867 19.834286010133383 -18.52330160429218 0 0 0
203 68 2 0.417 -4.2591352600824495 -19.466018614252686 -17.507080919952255 0 1 0
202 68 1 -0.834 -4.830440961101588 -19.29881129414977 -18.25667039918618 0 1 0
39 13 2 0.417 -2.1931427091349853 12.244576365673627 -15.734710332252787 0 0 0
35 12 2 0.417 1.1782940178135943 -19.530876896148538 -3.2719662024788825 -1 0 0
34 12 1 -0.834 0.8551889692293936 -19.391845897771923 -2.3817370359470313 -1 0 0
36 12 2 0.417 1.6464231522064672 -19.30899708110886 -1.849460140120318 -1 0 0
8 3 2 0.417 19.211927265142947 4.747956408784508 -15.114730563700999 0 1 0
175 59 1 -0.834 1.0546507949662782 5.304992469495656 -3.90172676768838 2 -1 1
176 59 2 0.417 0.8305805060119004 6.1026378654004105 -3.422365409980756 2 -1 1
177 59 2 0.417 0.24378153526914745 5.055652354730962 -4.345070068671129 2 -1 1
9 3 2 0.417 18.564635944222577 3.3813831206602694 -15.041314783388051 0 1 0
7 3 1 -0.834 18.646630979239635 4.206770187890978 -14.56355884337694 0 1 0
14 5 2 0.417 -19.297860570270572 11.997880202849599 -17.721163389953748 0 0 0
15 5 2 0.417 19.697062592683697 12.252012127421612 -16.61792495729124 -1 0 0
13 5 1 -0.834 19.807627819158494 11.791745284600331 -17.449888550752483 -1 0 0
127 43 1 -0.834 -9.510619804133796 13.359760724380438 -18.203267535151692 0 0 0
129 43 2 0.417 -8.955106748825816 13.47617335967026 -17.4324977824724 0 0 0
128 43 2 0.417 -9.898995157164013 14.221961964235541 -18.3516122805468 0 0 0
216 72 2 0.417 -14.485047708012887 0.4538097658474808 -13.059340443412484 1 -1 0
214 72 1 -0.834 -14.042963983781094 0.546774861458667 -13.903231868296169 1 -1 0
215 72 2 0.417 -14.424074100260496 -0.1397021331046363 -14.450715587545393 1 -1 0
142 48 1 -0.834 18.739272120095418 13.494919915664296 -15.419705858518299 -1 0 0
143 48 2 0.417 17.86177891234846 13.113205492439839 -15.442763777559831 -1 0 0
144 48 2 0.417 18.591461806449846 14.42675784670272 -15.258265155638338 -1 0 0
186 62 2 0.417 17.80571605474799 10.996499273638006 -19.270149582945887 -1 0 0
179 60 2 0.417 -2.9768249337783725 15.301584302981711 -14.853340439012973 0 0 0
163 55 1 -0.834 -5.817284386276402 12.462234725701808 -13.025944920697533 0 0 0
164 55 2 0.417 -6.214925460717752 11.91836904057377 -13.705889909256536 0 0 0
180 60 2 0.417 -3.8983336131052644 15.21885102297876 -13.655061512780689 0 0 0
178 60 1 -0.834 -3.6798772532379362 15.771828639467808 -14.405211358308549 0 0 0
38 13 2 0.417 -0.7655474680478764 12.747158373885796 -15.69887382249743 0 0 0
37 13 1 -0.834 -1.6546602046082657 12.973092935507514 -15.425624391586625 0 0 0
126 42 2 0.417 5.45105778460518 13.359418806640472 -9.391103341958436 -1 -1 0
124 42 1 -0.834 5.059538345159041 14.16402165451371 -9.051162546522406 -1 -1 0
125 42 2 0.417 5.468810457228582 14.86374202803272 -9.560200941968732 -1 -1 0
168 56 2 0.417 18.47459638022477 -0.4965520876486293 -11.820932472535638 0 0 0
166 56 1 -0.834 18.895026723093714 -0.8406855768293898 -12.608995884460251 0 0 0
167 56 2 0.417 18.84872243842493 -0.12168003253947535 -13.239169959458224 0 0 0
240 80 2 0.417 3.682083722135218 -12.818173196717186 -13.832571420929032 -1 2 -1
239 80 2 0.417 3.2034651005040793 -13.19349696276231 -15.218916240749518 -1 2 -1
238 80 1 -0.834 3.2799262795982886 -12.450944474578867 -14.619747485587782 -1 2 -1
24 8 2 0.417 -5.278812190106183 -9.891793598793152 -2.051972456729171 0 1 0
22 8 1 -0.834 -4.335657602245496 -10.011290937181098 -1.9405481118750556 0 1 0
23 8 2 0.417 -3.9877942471830012 -9.122328307723624 -1.870053841708225 0 1 0
193 65 1 -0.834 17.482955071546005 16.614965172155088 -8.63041011779419 0 0 0
195 65 2 0.417 18.4400656239593 16.62812140809794 -8.631324249387607 0 0 0
194 65 2 0.417 17.231146684356624 17.493191478985544 -8.344852075030541 0 0 0
224 75 2 0.417 -11.186875386371241 -2.5733385271147076 -0.3388623936209315 1 1 0
83 28 2 0.417 -7.355163426641274 -2.4940798742336767 -2.3264728626301503 0 0 0
223 75 1 -0.834 -11.752005028420413 -1.8118126776584471 -0.46901326902778545 1 1 0
225 75 2 0.417 -12.613288864778886 -2.182275729934321 -0.661834616137891 1 1 0
72 24 2 0.417 -14.757823649665369 -3.7046969112897123 -0.5994183426638394 0 0 0
70 24 1 -0.834 -14.1402868648801 -3.2522183022724347 -1.1739995134244998 0 0 0
112 38 1 -0.834 -9.040622396194117 -1.8941892416139725 -2.7110432996002336 2 -1 -1
113 38 2 0.417 -9.826022314967506 -1.3701492526394836 -2.5536785306708145 2 -1 -1
114 38 2 0.417 -9.122521791666147 -2.182281519787961 -3.6201793332680947 2 -1 -1
71 24 2 0.417 -14.497166533599392 -3.374578242186216 -2.0537136910100027 0 0 0
62 21 2 0.417 -14.926045471741041 -3.0420651545656057 -5.1556713928225335 0 0 -1
63 21 2 0.417 -14.987601221589745 -1.8733597643178013 -4.1953400467243345 0 0 -1
61 21 1 -0.834 -14.722105634675911 -2.7910834470572516 -4.254755901544443 0 0 -1
188 63 2 0.417 -12.855716663561518 -1.0982641725233737 -3.502199710334787 1 -2 0
20 7 2 0.417 -15.691251628894861 -3.1810152174855326 5.017101828770861 0 0 0
21 7 2 0.417 -15.016463823157425 -2.792235972349388 6.315336475106822 0 0 0
19 7 1 -0.834 -15.878125710446863 -2.896378315862707 5.911693978589033 0 0 0
187 63 1 -0.834 -12.068924671672038 -0.6760155431584818 -3.1573853975216015 1 -2 0
189 63 2 0.417 -12.36823334511212 -0.21348508642038422 -2.3746248371715724 1 -2 0
107 36 2 0.417 3.0948002656182267 -10.864520006130789 -6.571946327005252 0 3 0
140 47 2 0.417 -2.432579637624904 -12.189573717898972 -1.3011568608013682 0 2 1
141 47 2 0.417 -3.372067403669266 -11.382924890538105 -0.4301940908471252 0 2 1
139 47 1 -0.834 -2.6927859458485703 -12.056104956716137 -0.389722969815078 0 2 1
108 36 2 0.417 4.177792587767485 -11.438923668433572 -7.460250006360438 0 3 0
106 36 1 -0.834 3.3003506229999866 -11.61964343334962 -7.123101387778468 0 3 0
102 34 2 0.417 11.961923147033405 17.87238834203119 -8.906271229379563 0 -2 0
100 34 1 -0.834 12.77885889109188 17.887407791000175 -9.404891686911832 0 -2 0
101 34 2 0.417 12.959792188298263 18.817424724209467 -9.541141023561183 0 -2 0
148 50 1 -0.834 -10.877940156979038 12.54114148945219 6.445100570902726 0 -1 0
149 50 2 0.417 -11.063263084199804 13.064593559931188 7.224770798868074 0 -1 0
235 79 1 -0.834 -11.829959590307782 -15.153721379139496 1.0235329824995307 0 1 0
236 79 2 0.417 -11.273570987867965 -15.62352640334014 0.4022834331954788 0 1 0
237 79 2 0.417 -11.349410700964564 -15.189323983623252 1.850598941040423 0 1 0
55 19 1 -0.834 -3.8582240959838345 -7.2216572217204416 0.727585205744615 0 0 0
57 19 2 0.417 -4.463648471170033 -6.486134336898403 0.8208667716625906 0 0 0
56 19 2 0.417 -3.3315849394790455 -7.201824648479153 1.5266408487098784 0 0 0
96 32 2 0.417 -15.08067670553753 -1.9092084822215782 0.6204302248963971 0 -1 -1
94 32 1 -0.834 -15.109422706119947 -2.3297768632987657 1.4798069667945646 0 -1 -1
91 31 1 -0.834 -16.040156042486977 1.2677544327857448 1.6086777402311767 0 0 0
92 31 2 0.417 -16.5631479848039 2.062366953242079 1.7149922829712672 0 0 0
93 31 2 0.417 -16.274371161378582 0.7238882860103252 2.3607315714981008 0 0 0
95 32 2 0.417 -14.354437191581662 -1.9724027502031973 1.9472605210731477 0 -1 -1
84 28 2 0.417 -7.025599112717397 -3.4993514707998385 -3.409391179157234 0 0 0
170 57 2 0.417 -15.022029489748762 -3.3462344896949094 2.8529131618101 0 0 0
169 57 1 -0.834 -14.679568549188092 -3.7040669168904325 3.672004170541752 0 0 0
171 57 2 0.417 -13.72914918056542 -3.6961478127779 3.5585465775594174 0 0 0
156 52 2 0.417 -11.826287570079037 -1.9420831251314576 1.6600722829783081 0 0 0
154 52 1 -0.834 -12.004577103751252 -2.7976460236719958 2.050533361077986 0 0 0
155 52 2 0.417 -11.743111573308052 -3.4272666121800994 1.3786344160647659 0 0 0
82 28 1 -0.834 -6.667001391495236 -3.0902745094253103 -2.6218011713187375 0 0 0
116 39 2 0.417 -16.37827482284174 3.639789636128417 -0.2858248727687507 0 0 0
48 16 2 0.417 18.19136473351408 2.0476510534126695 0.10983353115292599 -1 0 0
115 39 1 -0.834 -16.030720780554788 4.413404141857756 0.15797563288681835 0 0 0
117 39 2 0.417 -16.801873579737055 4.947506697501232 0.3484743917683194 0 0 0
41 14 2 0.417 -15.726571969905285 1.31743280094861 -0.31114813652838635 0 0 0
40 14 1 -0.834 -15.835976531952886 1.8868406050449285 -1.0727505226375051 0 0 0
42 14 2 0.417 -15.01966483066209 2.38451345819029 -1.1195522817009793 0 0 0
110 37 2 0.417 8.65702532996723 3.424703057599324 12.919785064639315 0 0 0
132 44 2 0.417 6.055957347801781 0.6592517351354303 12.488044461606226 0 0 0
131 44 2 0.417 7.219678787426029 1.5207265104698837 12.045880447883654 0 0 0
130 44 1 -0.834 6.680331420197476 1.3103383388438696 12.808161959721572 0 0 0
47 16 2 0.417 17.702499830098045 3.4801893157139006 0.08260815169601372 -1 0 0
46 16 1 -0.834 17.674582718680448 2.6807099578813918 0.6082366189019527 -1 0 0
105 35 2 0.417 -5.96326998173078 6.042553749880396 1.4458984698973425 0 0 0
16 6 1 -0.834 -4.580522499387542 3.563212935896632 4.039426067806975 0 -1 0
18 6 2 0.417 -3.8228502057808282 3.784463942728613 3.4979349129813717 0 -1 0
103 35 1 -0.834 -6.010242732892625 5.483090424089791 2.2211578977401087 0 0 0
104 35 2 0.417 -6.607317401028556 4.777585859029899 1.9721647510310483 0 0 0
206 69 2 0.417 -9.542041085927984 13.76980348406789 3.0259933153464846 0 -1 0
150 50 2 0.417 -10.914611178500037 13.166858609929607 5.721660491700044 0 -1 0
207 69 2 0.417 -10.517717117205393 12.612308763203067 3.013261479819791 0 -1 0
205 69 1 -0.834 -10.298033403412582 13.411898506494188 3.491412152434978 0 -1 0
153 51 2 0.417 4.861177603766868 16.194149570625274 3.5040906755778343 0 -1 -1
152 51 2 0.417 4.373620218369421 16.788532514315268 4.808274090859528 0 -1 -1
1 1 1 -0.834 5.995740205030965 18.818311795410686 2.626762974651872 1 -1 0
2 1 2 0.417 6.009407962620127 17.950573276859632 3.030588997289007 1 -1 0
3 1 2 0.417 6.896204536132531 19.133476368872717 2.704660031386772 1 -1 0
89 30 2 0.417 12.209083711361044 -13.40896032117868 4.023843427803845 1 0 -1
88 30 1 -0.834 12.026919962927968 -14.07440887219206 3.3603476447231824 1 0 -1
90 30 2 0.417 11.354594921840057 -13.680956410517275 2.804104455256611 1 0 -1
197 66 2 0.417 9.07165931710754 4.654238088375324 9.660264769616361 0 0 0
111 37 2 0.417 7.24332592512377 3.9314747047538536 12.728629611330094 0 0 0
109 37 1 -0.834 8.140135148038576 4.054587866497579 12.41748452137937 0 0 0
17 6 2 0.417 -5.262881836967894 4.172593702905283 3.7578649480892254 0 -1 0
196 66 1 -0.834 9.789505694534917 4.618994927342428 10.292472480706806 0 0 0
198 66 2 0.417 9.36400492978565 4.427768174522082 11.12830546717331 0 0 0
191 64 2 0.417 5.6333179101431226 15.420958323076706 5.424146956466258 0 -1 -1
190 64 1 -0.834 5.726324349222928 14.469992935290371 5.48116248477032 0 -1 -1
192 64 2 0.417 6.587676034213683 14.290083958288845 5.1044118097689495 0 -1 -1
151 51 1 -0.834 5.119026965008782 16.789612383864256 4.207773809420449 0 -1 -1
59 20 2 0.417 3.744619496839314 -1.8083433555743569 17.956531923741913 -1 0 0
60 20 2 0.417 3.6554131603715563 -0.8270530676684722 19.105882793238273 -1 0 0
58 20 1 -0.834 3.789739936779362 -0.8739579491984777 18.15931580363376 -1 0 0
50 17 2 0.417 0.9770766146506036 3.5946025474375523 11.878553506703785 0 -2 -1
49 17 1 -0.834 1.5984322170165148 3.489104062426531 11.158123442091847 0 -2 -1
51 17 2 0.417 1.9763069941847884 4.360262644150578 11.03760204723075 0 -2 -1
230 77 2 0.417 9.10262548215867 11.673370599052552 19.519387595361945 0 0 0
231 77 2 0.417 9.466942538318342 11.015991743778704 18.205223928172053 0 0 0
213 71 2 0.417 -7.061424926716329 19.744812771768157 23.641340960291725 0 -3 0
212 71 2 0.417 -7.982225808854635 18.586534308549776 23.96137032361011 0 -3 0
211 71 1 -0.834 -7.580158318348684 19.05395946395161 23.22918790822754 0 -3 0
87 29 2 0.417 -13.386302747926669 -0.4230376395058051 20.701091640939666 -1 -1 0
85 29 1 -0.834 -12.641539099332151 -0.022476193926646647 20.252635261108303 -1 -1 0
229 77 1 -0.834 9.095656635359711 10.829549537863677 19.067558267416906 0 0 0
86 29 2 0.417 -11.988855205667443 0.10769891266752277 20.940597531559703 -1 -1 0
123 41 2 0.417 -15.239964718910896 0.43332305206739813 25.733060658108762 1 1 0
121 41 1 -0.834 -15.42128327725141 -0.3806985746348359 26.202875341980306 1 1 0
122 41 2 0.417 -14.935957561033405 -0.29726834732060864 27.0236863052004 1 1 0
43 15 1 -0.834 -9.993830532516755 4.0323195390822875 32.986856110912406 0 0 0
44 15 2 0.417 -10.807734037924595 3.699055267783472 32.60906045166624 0 0 0
45 15 2 0.417 -9.772696239720508 3.4031534376991193 33.673501441873476 0 0 0
69 23 2 0.417 -9.4582765765085 -4.373525931235078 35.93704184274582 0 -1 0
67 23 1 -0.834 -9.148332525043516 -4.605741110619229 36.81239480484844 0 -1 0
68 23 2 0.417 -9.550503051583915 -3.956506883144214 37.389450096877624 0 -1 0
159 53 2 0.417 1.631036009157789 -11.908729130220232 23.42719663456072 0 -1 -3
157 53 1 -0.834 1.9135562846392875 -11.740748147404364 22.528197676136127 0 -1 -3
158 53 2 0.417 1.4202682010154837 -12.368643452353481 22.00032603882579 0 -1 -3
81 27 2 0.417 -12.839399924355869 -8.831440268534807 32.34783501602698 1 1 -1
181 61 1 -0.834 -18.67672879367019 -12.434688222755778 34.48068186563437 0 0 -1
183 61 2 0.417 -17.862700581506513 -12.649312521466745 34.02512803810499 0 0 -1
182 61 2 0.417 -18.433124615546987 -12.404187341510706 35.40586244255406 0 0 -1
99 33 2 0.417 17.241421285718207 19.74536199111595 37.00352647563647 2 0 -1
98 33 2 0.417 17.562855763738842 -19.741452312180986 38.39104923919591 2 1 -1
201 67 2 0.417 7.222067070714638 -19.156760289545893 -18.95696824149404 -1 0 1
200 67 2 0.417 7.108748301439099 19.718565186542197 -19.964024132293368 -1 -1 1
199 67 1 -0.834 7.731106449627945 -19.848407824735126 -19.37973835818583 -1 0 1
145 49 1 -0.834 -15.374393232758345 -11.88356440119567 32.22322518815314 1 1 -1
138 46 2 0.417 -15.732973908530646 -11.444539901527143 35.14703449072589 1 1 -1
80 27 2 0.417 -13.967660690676706 -8.833967566574922 31.338415477369814 1 1 -1
136 46 1 -0.834 -15.375876911879955 -12.310472792473188 34.94986831485195 1 1 -1
137 46 2 0.417 -15.286515186375006 -12.32192288983491 33.99691550345186 1 1 -1
228 76 2 0.417 -16.71921648947041 -13.602057892623344 36.7177245623224 0 0 -1
227 76 2 0.417 -17.816214677626085 -14.02973648306106 37.66934510946756 0 0 -1
226 76 1 -0.834 -17.56076622628284 -13.321973492031447 37.07769514835967 0 0 -1
53 18 2 0.417 -13.40353639447012 -11.200234911207612 28.85148560296156 1 1 -1
52 18 1 -0.834 -13.624639312546417 -11.46983237627991 29.74292453135762 1 1 -1
79 27 1 -0.834 -13.016424177749832 -8.91250550924831 31.41064506532917 1 1 -1
147 49 2 0.417 -16.298277235398093 -12.131786665170477 32.25572374295606 1 1 -1
54 18 2 0.417 -13.036495341766855 -10.960517156178806 30.30052380734032 1 1 -1
73 25 1 -0.834 19.805701740247624 -15.037711740294977 -15.442078829766043 4 -1 1
74 25 2 0.417 19.662425661729866 -14.225414274293186 -14.956407477578438 4 -1 1
75 25 2 0.417 -19.823711469381742 -14.75522671028716 -16.27820277785344 5 -1 1
66 22 2 0.417 -15.346739879277965 -0.43711518837664387 39.74820360989201 -2 0 0
65 22 2 0.417 -16.474675847893227 -1.286216125177832 39.201683225464826 -2 0 0
64 22 1 -0.834 -15.614102671182065 -0.9337984630774926 38.9748625865183 -2 0 0
97 33 1 -0.834 16.85557964609403 -19.79323504717172 37.74815125797895 2 1 -1

Velocities

146 0.0012728545918460035 -0.0252011539072022 -0.002355474739414838
120 -0.008034703148973863 -0.0013868870030525242 -0.003515169741631071
118 -0.002752415035884256 -0.0029205979281063687 -0.013820926195767162
119 -0.00447342054409809 0.000870307414735157 -0.00761056609692519
11 -0.015723725009209825 -0.021449548551407502 0.001704670627710181
10 -0.005166931259861366 0.0018860545062753305 0.00038208079807939725
12 -0.00823996882111285 0.016915452001815077 -0.01982599490448385
78 0.001226871847724878 -0.009409947009321802 -0.009907051388478746
77 -0.022479187985403947 -0.0019608563478500903 -0.025599022259350047
76 -0.006500117795997785 0.005477176086410473 -0.00022920812274931292
33 0.0008561494347665405 -4.993147027661187e-05 -0.011241524896034444
32 0.031096472838450764 -0.0015268908249257724 0.0011513291801022927
31 -0.007149299956665351 0.004236157317924425 0.0002978058539100245
5 0.010237194296519987 -0.0002325483776544458 -0.0028755405292179336
4 0.006227425859589151 -0.0019136176960769771 -0.005168219738754676
6 -0.024911645900109736 0.0025328143647792884 -0.02537306758817828
233 -0.0009468078273334959 0.0007035562452858241 0.004805175246956137
185 -0.0013368789829756986 0.013249072928399611 -0.028024444453671027
232 -0.0006965724095719608 0.0031563430389101896 -0.0006560725095646656
173 -0.002606697097560662 0.008444161695519998 0.012231224422752927
172 0.0013741150118475427 0.004351653584209547 -0.0036381937023416354
28 -0.005583230388481139 -0.003134925730608574 0.00581816616065249
30 -0.006841143585429286 -0.0028191765715357355 0.026061997391714938
29 -0.014280579059144788 0.006602596227013625 -0.049008909815593145
184 -0.009293047508555684 -0.0018243149691720506 -0.011204046690496964
27 -0.003264895300122659 -0.01511783979629263 0.028487168769111514
220 0.005402013909080498 -0.006342648019134793 -0.002989339104952432
222 -0.0030831274877204193 -0.026085645127267517 0.002744942539851142
234 0.003305553706297086 -0.00075675641659087 -0.0015642305616958363
221 -0.002444447393949424 -0.0009446817732251279 0.006523934343609181
133 0.005680858692110603 -0.0003027111992483473 0.005745725668077771
26 0.007813028148691578 -0.037474390972226324 0.024199660509267806
25 -0.0030366117102289198 0.008215778078979021 0.011254016413895914
219 -0.014720913296513425 -0.012055510155034466 -0.005793624588658657
217 0.0019923923694001636 0.0060484236241043045 -0.006693665965200709
218 0.011676484038704136 0.005490259399815478 -0.006658423163851796
160 0.0015122759682470808 0.014708895929567832 0.0070169835095280015
162 0.004196726993453634 0.0032050581319953034 -0.0005745713496069057
161 0.003920817432526301 0.018090260358886483 0.012341257452467726
208 0.0018647475756770025 0.005646192234880465 0.0011590100345168198
210 -0.004436097482665848 -0.0006604573450376908 -0.012606512530168054
209 0.003822075392378552 0.017827439108736205 0.021017132414984166
135 0.009244064650615546 -0.010507502334037916 -0.005000858875138767
134 -0.026338129282900653 0.005165842308014859 -0.020243021040714123
174 -0.004563925169879268 -0.01936588808042527 -0.0047578320167086935
165 -0.008237346873241437 -0.013780030410848824 -0.0018462598844081008
204 0.011198884119299216 -0.004291511502303567 0.00503640532202677
203 -0.00852639366426397 0.017905993493999565 0.006765785588088699
202 0.0020531987027024427 0.0019699128159232438 -0.004843180625639542
39 0.016111286006703748 -0.02670836680931655 0.019743817770967547
35 -0.03037801811738241 -0.027882407244231428 0.000737689055004787
34 -0.005541646388526157 -0.0037779712855430508 0.005980735595930912
36 0.009306823658787523 -0.025055431399163088 -0.01276347659838301
8 -0.010966522033470408 0.01548532778916103 0.0011625798031974237
175 -0.0013321081794090094 -0.00011898126819774344 0.009380343511975328
176 0.012064923811103164 0.012195115683935245 -0.004852586270352869
177 -0.00031717282051182 0.01643998684267516 -0.0017938914480332803
9 -0.030459895581119757 0.022968343825913427 -0.031360760968597266
7 0.0035421474654423655 0.0006094910286054426 0.0014129522191872416
14 -0.0025733128298452597 0.014752409689073044 0.018387689396304224
15 -0.0197521890369072 -0.009363825530528657 0.008278240784995426
13 -0.006797899938241871 0.008837008738721636 -6.697892745402251e-05
127 0.002246430974472417 -0.0019203908439708011 -0.0051683308582826945
129 -0.011267531836634447 0.010726288701401649 0.002652435415169913
128 0.0012501650448017258 -0.005504549984808711 -0.023354346325420692
216 -0.010581025267781907 -0.02331032492934225 -0.0061023045350883315
214 0.006258116962097344 -0.007903723858309222 0.004410027713604171
215 0.006666928983446058 0.011485169073667091 -0.02019190247458499
142 -0.005031749070925874 0.0038420164392257393 0.0013582098731756815
143 -0.005009365474463285 0.003986874180034373 -0.0019324184418777909
144 -0.00441278392396884 2.4278751359974225e-05 0.023902352311465824
186 -0.012725959557285138 -0.007819581023807797 0.012478065588834719
179 0.003535190728387384 0.00337325258403856 -0.0037362211332496228
163 -0.00553567637254703 -0.0067469693236721934 0.002804559279204093
164 -0.0026636101555417404 0.008136294240515344 -0.010786332785667822
180 0.006418993777067257 0.01307323726589805 -0.000850395899007116
178 0.001482685406765809 0.004758728896537477 -0.008414599755064579
38 0.002286882251328379 0.014596799549040501 -0.008836016500651401
37 -3.381922931069066e-05 -0.007054280660214507 0.0015252209777433976
126 0.01524453675725474 0.0020350909072045027 0.0037765223899740956
124 -0.0055175717275252195 -0.006735801340461214 0.0006206297369753572
125 -0.017280479929862542 0.0024160367456959988 0.0037419390683446248
168 0.022620376519462793 -0.0032740585448311067 0.009195860952516571
166 -0.00019868797071275298 0.0017717558001583773 -0.005180079349386279
167 -0.0013713400281308347 0.012381641158221794 0.0070096363414166975
240 -0.024945282432461385 0.0027002330962975704 -0.0032399914620965275
239 -0.02973552771296628 0.016613249206670407 -0.005352880777638491
238 -0.0003016183891384652 0.016743708653202797 -0.009281979664637981
24 0.004511442213488277 0.018126264486138823 -0.03804514731073574
22 -0.0021734937341652424 -0.0019181077314939317 -0.0029160441702347473
23 0.01676630307758191 -0.008621197047168523 -0.01189600072422071
193 0.0052382980406087375 -0.00012311282502830095 -0.010749773127173108
195 0.005553179888316317 -0.022268903945935208 0.0173701955907334
194 0.017236407452150274 0.0008968501443628958 -0.0033034339273054695
224 -0.009749663110674215 -0.010186078045332576 -0.004916269196838996
83 -0.012034256884310646 -0.01538391278058579 0.007414926643029626
223 0.000537927935644879 -0.00238741088741445 -0.004028518970443677
225 -0.003518526223790417 0.009468939598303985 -0.00870128371778787
72 0.009378774274190866 -0.0076393234612041035 -0.003068220550769246
70 0.00642804108340573 0.001432934488716234 0.0009137755729142795
112 0.009656005231304684 0.00492278883036993 -0.002372384091806763
113 -0.004045218229063845 -0.020575470975839342 0.014085435579238043
114 -0.006082999259421316 -0.007910114099897161 0.0031090261162534816
71 0.011833273651126004 -0.0005001466565445806 -0.0010061396603096276
62 0.0014786445925318032 -0.0057552319272957415 -0.01020447852604406
63 0.03387642567045344 -0.0013608908667669302 -0.013457917953865103
61 -0.0005416105677045453 -0.011685197266888872 -0.008091144818896289
188 -0.0017518153835085815 -0.0022391455374286434 0.01328886947326332
20 0.024479611808370744 0.002485082820495183 0.001815494212389098
21 -0.020483479580900972 -0.002236709375201397 0.026584548002844675
19 -0.006699192312356656 -0.00867553565658789 -0.0011492756425151094
187 0.005427028779680452 -0.0024507823522189336 -0.002857377403940347
189 0.015160045895234163 0.024618524388225264 -0.015101741815228761
107 0.008560703777641225 -0.0007700170653349147 0.025374146626674764
140 -0.006912666968969202 -0.006028419900059204 0.009989624290749332
141 -0.008123071880220675 0.00552835097011184 -0.00202858631433546
139 0.0007009888542479657 0.015097564172331802 0.009064793325589753
108 0.007520984747101364 0.006193717895220419 0.019604749855704356
106 -0.002480544964056578 0.015710224023035627 -0.0013193061856076676
102 -0.007821478388147925 0.0051733831029156414 -0.012348067500775871
100 -0.0041676921897095005 0.0014708888910304032 -0.006467493649975136
101 0.005219174237317776 0.0008489294494096039 0.0017100096903083124
148 0.0026987068780425917 -0.00533932488283422 -0.002095876858290202
149 0.012083714035934133 -0.012953010657415548 0.005253171106234235
235 -0.005759815976435005 0.0027906775966835716 -0.0001522052714211235
236 -0.03787867344091308 -0.026391420372530984 -0.006848008283033946
237 0.011122488299128465 -0.006198598393486291 -0.010346254384733451
55 0.0001867609895571507 0.006140314193669055 0.004048458542444288
57 0.024339016207583226 0.02661314351190385 -0.0006702312302409296
56 0.006538512861354665 -0.0008472657944925065 3.28627598801951e-05
96 -0.005729681685202044 -0.014998101810549063 0.00046688647410503053
94 -0.0034991163647188745 -0.0004756069290962163 0.0076474278372687604
91 0.004041546675123703 0.007102834065151683 -0.0005889015590181942
92 0.012579914833489712 0.010817553652202782 0.013561899380355234
93 0.0038376608798106194 -0.0006095640952179119 -0.006228307232544277
95 0.0007410420657878722 0.0034419163413314073 -0.002201747097304568
84 -0.005985627080534479 -0.02328397724921142 0.016597239835171217
170 -0.011449575572450984 -0.016222203512780562 -0.0021227633981412827
169 0.0007527609280170817 0.0012596903030712085 0.00039898312638352376
171 -0.00048302057614784105 0.009792563175363131 -0.009335090777183235
156 0.03263927285227121 -0.002234577045716313 0.010943445238356173
154 -0.0027397738031056137 0.0022099550852070064 0.004492995962761894
155 0.02689672513570041 -0.004754232535028037 0.022588639791373873
82 0.0011322309139495874 0.0038656346043149208 -0.0007568677888575454
116 -0.005063027887996043 -0.0005967394495393889 0.005769626412472668
48 0.011497943422410463 0.006408684117978997 0.00401005383162875
115 -0.0008230026002334456 0.001076219454128412 -0.00045932951000309587
117 0.0008706136521898872 0.0012401260469758516 0.005948318512949501
41 -0.0017980486720784268 0.012100705143694247 0.008962950534775227
40 -0.0038988132385604194 -0.002481825892178474 -0.0016121258150218563
42 -0.017119032047115047 0.01988504345155771 0.0058242398510517795
110 0.035041314018420526 0.0320668458054984 0.008942388873499952
132 -0.006409547036014291 0.00748949589022533 0.006932805910065845
131 -0.0014448519870888874 -0.0010606550394075187 0.0033520722704965572
130 -0.0006192971861681199 0.0028751994944505544 0.00502003372077934
47 -0.006242819933013685 0.00029154147516609677 0.0006765056274841926
46 -0.0065496418529789185 -0.0024270965326576893 -0.003474761894421461